2
step: 0 K1: 1.2090145507811112e+16 K2: 1.2090145502095788e+16 U: 2486700.185923944 E_J: 3.5465342948333254e-08 E_tot: 2.41802910123936e+16
H 6736003.658344377 -633335.3240395393 0
H 4260221.605054284 -400556.4317785647 0
2
step: 1 K1: 1.2090538477383084e+16 K2: 1.2090538471667668e+16 U: 2527112.8330451595 E_J: 3.4898194618542026e-08 E_tot: 2.4181076951577864e+16
H 6845409.538149907 -644312.5271140477 0
H 4329415.959026023 -407499.0245944837 0
2
step: 2 K1: 1.2090937737820482e+16 K2: 1.2090937732104972e+16 U: 2567526.136734594 E_J: 3.4348891237419504e-08 E_tot: 2.4181875472492984e+16
H 6954816.097681625 -655300.8492956203 0
H 4398610.742894348 -414448.6497511821 0
2
step: 3 K1: 1.2091343289538268e+16 K2: 1.2091343283822662e+16 U: 2607940.107110062 E_J: 3.381660349935876e-08 E_tot: 2.4182686575968868e+16
H 7064223.3642429365 -666300.2936885514 0
H 4467805.97392745 -421405.3092119877 0
2
step: 4 K1: 1.2091755132957888e+16 K2: 1.2091755127242184e+16 U: 2648354.754306878 E_J: 3.330055270157654e-08 E_tot: 2.4183510262848428e+16
H 7173631.365136816 -677310.863405597 0
H 4537001.669393247 -428369.00494558044 0
2
step: 5 K1: 1.2092173268507272e+16 K2: 1.2092173262791468e+16 U: 2688770.088476558 E_J: 3.280000694249825e-08 E_tot: 2.418434653398751e+16
H 7283040.127665813 -688332.5615679766 0
H 4606197.846559387 -435339.73892599274 0
2
step: 6 K1: 1.209259769662084e+16 K2: 1.2092597690904938e+16 U: 2729186.119785635 E_J: 3.231427765779092e-08 E_tot: 2.4185195390254964e+16
H 7392449.679132055 -699365.3913053733 0
H 4675394.522693251 -442317.51313261 0
2
step: 7 K1: 1.2093028417739502e+16 K2: 1.2093028412023496e+16 U: 2769602.8584145815 E_J: 3.184271645956751e-08 E_tot: 2.4186056832532604e+16
H 7501860.046837255 -710409.3557559348 0
H 4744591.71506196 -449302.3295501711 0
2
step: 8 K1: 1.2093465432310656e+16 K2: 1.2093465426594548e+16 U: 2810020.314556819 E_J: 3.1384712248251686e-08 E_tot: 2.4186930861715224e+16
H 7611271.258082719 -721464.4580662742 0
H 4813789.4409323735 -456294.19016876887 0
2
step: 9 K1: 1.2093908740788206e+16 K2: 1.2093908735071994e+16 U: 2850438.498417815 E_J: 3.093968857005104e-08 E_tot: 2.418781747871064e+16
H 7720683.340169343 -732530.7013914703 0
H 4882987.7175710965 -463293.09698385047 0
2
step: 10 K1: 1.209435834363255e+16 K2: 1.2094358337916232e+16 U: 2890857.420214261 E_J: 3.0507101196011946e-08 E_tot: 2.418871668443964e+16
H 7830096.320397631 -743608.088895069 0
H 4952186.562244482 -470299.0519962179 0
2
step: 11 K1: 1.2094814241310586e+16 K2: 1.2094814235594158e+16 U: 2931277.0901733087 E_J: 3.008643590127795e-08 E_tot: 2.418962847983602e+16
H 7939510.22606769 -754696.6237490837 0
H 5021385.992218636 -477312.05721202865 0
2
step: 12 K1: 1.2095276434295714e+16 K2: 1.2095276428579178e+16 U: 2971697.5185318785 E_J: 2.9677206425498853e-08 E_tot: 2.4190552865846588e+16
H 8048925.084479241 -765796.309133996 0
H 5090586.024759416 -484332.1146427959 0
2
step: 13 K1: 1.2095744923067836e+16 K2: 1.2095744917351188e+16 U: 3012118.715536014 E_J: 2.9278952597382323e-08 E_tot: 2.4191489843431144e+16
H 8158340.92293162 -776907.1482387567 0
H 5159786.677132439 -491359.2263053891 0
2
step: 14 K1: 1.2096219708113364e+16 K2: 1.2096219702396606e+16 U: 3052540.691440302 E_J: 2.889123860818018e-08 E_tot: 2.4192439413562508e+16
H 8267757.76872379 -788029.1442607862 0
H 5228987.9666030845 -498393.3942220346 0
2
step: 15 K1: 1.2096700789925216e+16 K2: 1.2096700784208344e+16 U: 3092963.4565073196 E_J: 2.851365142049151e-08 E_tot: 2.4193401577226524e+16
H 8377175.64915434 -799162.3004059757 0
H 5298189.910436497 -505434.620420316 0
2
step: 16 K1: 1.2097188169002818e+16 K2: 1.209718816328583e+16 U: 3133387.021007141 E_J: 2.8145799300168672e-08 E_tot: 2.4194376335422036e+16
H 8486594.591521494 -810306.6198886876 0
H 5367392.525897589 -512482.9069331746 0
2
step: 17 K1: 1.2097681845852106e+16 K2: 1.2097681840135002e+16 U: 3173811.395216872 E_J: 2.7787310460356748e-08 E_tot: 2.419536368916092e+16
H 8596014.623123117 -821462.1059317567 0
H 5436595.8302510455 -519538.25579891 0
2
step: 18 K1: 1.2098181820985532e+16 K2: 1.209818181526831e+16 U: 3214236.5894202273 E_J: 2.743783180779968e-08 E_tot: 2.4196363639468076e+16
H 8705435.771256719 -832628.7617664903 0
H 5505799.840761328 -526600.6690611806 0
2
step: 19 K1: 1.2098688094922054e+16 K2: 1.2098688089204712e+16 U: 3254662.6139071304 E_J: 2.7097027782526524e-08 E_tot: 2.419737618738143e+16
H 8814858.06321946 -843806.5906326699 0
H 5575004.574692677 -533670.1487690038 0
2
step: 20 K1: 1.2099200668187152e+16 K2: 1.209920066246969e+16 U: 3295089.478973348 E_J: 2.6764579282902602e-08 E_tot: 2.419840133395193e+16
H 8924281.526308155 -854995.5957785512 0
H 5644210.049309114 -540746.6969767571 0
2
step: 21 K1: 1.2099719541312826e+16 K2: 1.209971953559524e+16 U: 3335517.194920159 E_J: 2.6440182668807387e-08 E_tot: 2.419943908024358e+16
H 9033706.187819283 -866195.7804608652 0
H 5713416.281874448 -547830.3157441781 0
2
step: 22 K1: 1.2100244714837584e+16 K2: 1.2100244709119874e+16 U: 3375945.772054029 E_J: 2.6123548836393874e-08 E_tot: 2.42004894273334e+16
H 9143132.07504899 -877407.1479448192 0
H 5782623.289652278 -554921.007136365 0
2
step: 23 K1: 1.2100776189306458e+16 K2: 1.2100776183588622e+16 U: 3416375.2206863286 E_J: 2.581440235850328e-08 E_tot: 2.4201552376311456e+16
H 9252559.215293096 -888629.7015040971 0
H 5851831.089905995 -562018.7732237775 0
2
step: 24 K1: 1.2101313965271002e+16 K2: 1.2101313959553038e+16 U: 3456805.5511330534 E_J: 2.55124806853634e-08 E_tot: 2.4202627928280844e+16
H 9361987.635847097 -899863.4444208606 0
H 5921039.699898788 -569123.6160822369 0
2
step: 25 K1: 1.2101858043289288e+16 K2: 1.2101858037571198e+16 U: 3497236.7737145782 E_J: 2.5217533400695025e-08 E_tot: 2.4203716084357724e+16
H 9471417.364006175 -911108.3799857501 0
H 5990249.136893644 -576235.5377929268 0
2
step: 26 K1: 1.2102408423925914e+16 K2: 1.2102408418207692e+16 U: 3537668.8987554186 E_J: 2.4929321528796754e-08 E_tot: 2.4204816845671276e+16
H 9580848.4270652 -922364.511497885 0
H 6059459.418153357 -583354.5404423936 0
2
step: 27 K1: 1.2102965107751996e+16 K2: 1.2102965102033644e+16 U: 3578101.936584015 E_J: 2.4647616888578276e-08 E_tot: 2.420593021336374e+16
H 9690280.852318738 -933631.8422648651 0
H 6128670.560940525 -590480.6261225471 0
2
step: 28 K1: 1.2103528095345182e+16 K2: 1.2103528089626696e+16 U: 3618535.8975325255 E_J: 2.437220149087259e-08 E_tot: 2.4207056188590416e+16
H 9799714.667061055 -944910.375602771 0
H 6197882.582517557 -597613.7969306607 0
2
step: 29 K1: 1.2104097387289646e+16 K2: 1.2104097381571026e+16 U: 3658970.7919366397 E_J: 2.410286697568147e-08 E_tot: 2.4208194772519644e+16
H 9909149.898586126 -956200.114836165 0
H 6267095.500146678 -604754.0549693723 0
2
step: 30 K1: 1.2104672984176082e+16 K2: 1.2104672978457326e+16 U: 3699406.6301353946 E_J: 2.3839414086301152e-08 E_tot: 2.4209345966332816e+16
H 10018586.574187633 -967501.0632980921 0
H 6336309.33108993 -611901.4023466847 0
2
step: 31 K1: 1.210525488660172e+16 K2: 1.2105254880882828e+16 U: 3739843.422471017 E_J: 2.358165217753872e-08 E_tot: 2.421050977122439e+16
H 10128024.721158978 -978813.2243300807 0
H 6405524.092609175 -619055.8411759661 0
2
step: 32 K1: 1.2105843095170316e+16 K2: 1.2105843089451284e+16 U: 3780281.1792887645 E_J: 2.332939875546867e-08 E_tot: 2.421168618840188e+16
H 10237464.366793286 -990136.6012821435 0
H 6474739.8019661 -626217.3735759503 0
2
step: 33 K1: 1.2106437610492158e+16 K2: 1.2106437604772986e+16 U: 3820719.9109367756 E_J: 2.3082479046394567e-08 E_tot: 2.4212875219085864e+16
H 10346905.53838341 -1001471.1975127782 0
H 6543956.476422222 -633386.0016707379 0
2
step: 34 K1: 1.2107038433184062e+16 K2: 1.2107038427464746e+16 U: 3861159.627765945 E_J: 2.2840725592876236e-08 E_tot: 2.421407686450997e+16
H 10456348.263221936 -1012817.0163889684 0
H 6613174.133238889 -640561.7275897963 0
2
step: 35 K1: 1.2107645563869376e+16 K2: 1.2107645558149918e+16 U: 3901600.3401297843 E_J: 2.2603977874860492e-08 E_tot: 2.4215291125920896e+16
H 10565792.568601191 -1024174.0612861847 0
H 6682392.789677283 -647744.5534679606 0
2
step: 36 K1: 1.2108259003177986e+16 K2: 1.2108258997458384e+16 U: 3942042.0583843132 E_J: 2.2372081954113906e-08 E_tot: 2.4216518004578412e+16
H 10675238.481813246 -1035542.3355883851 0
H 6751612.462998425 -654934.4814454337 0
2
step: 37 K1: 1.2108878751746312e+16 K2: 1.2108878746026564e+16 U: 3982484.792887938 E_J: 2.21448901403027e-08 E_tot: 2.421775750175536e+16
H 10784686.030149922 -1046921.8426880161 0
H 6820833.170463178 -662131.5136677872 0
2
step: 38 K1: 1.2109504810217306e+16 K2: 1.2109504804497408e+16 U: 4022928.5540013583 E_J: 2.1922260677197507e-08 E_tot: 2.421900961873764e+16
H 10894135.240902798 -1058312.5859860135 0
H 6890054.9293322535 -669335.6522859618 0
2
step: 39 K1: 1.2110137179240456e+16 K2: 1.211013717352041e+16 U: 4063373.352087456 E_J: 2.1704057447602245e-08 E_tot: 2.4220274356824236e+16
H 11003586.141363215 -1069714.5688918035 0
H 6959277.756866209 -676546.8994562678 0
2
step: 40 K1: 1.211077585947179e+16 K2: 1.2110775853751594e+16 U: 4103819.1975112096 E_J: 2.1490149695716242e-08 E_tot: 2.4221551717327204e+16
H 11113038.758822277 -1081127.7948233031 0
H 7028501.670325457 -683765.2573403858 0
2
step: 41 K1: 1.2111420851573878e+16 K2: 1.2111420845853528e+16 U: 4144266.1006396087 E_J: 2.1280411765739848e-08 E_tot: 2.4222841701571676e+16
H 11222493.120570866 -1092552.2672069215 0
H 7097726.686970266 -690990.7281053672 0
2
step: 42 K1: 1.2112072156215816e+16 K2: 1.2112072150495312e+16 U: 4184714.07184157 E_J: 2.1074722855625414e-08 E_tot: 2.4224144310895844e+16
H 11331949.253899641 -1103987.9894775602 0
H 7166952.824060761 -698223.3139236345 0
2
step: 43 K1: 1.2112729774073256e+16 K2: 1.2112729768352596e+16 U: 4225163.121487858 E_J: 2.087296678495975e-08 E_tot: 2.4225459546651016e+16
H 11441407.186099043 -1115434.9650786147 0
H 7236180.098856936 -705463.0169729822 0
2
step: 44 K1: 1.2113393705828376e+16 K2: 1.211339370010756e+16 U: 4265613.259951015 E_J: 2.067503177604073e-08 E_tot: 2.4226787410201548e+16
H 11550866.944459304 -1126893.1974619748 0
H 7305408.528618649 -712709.8394365773 0
2
step: 45 K1: 1.211406395216991e+16 K2: 1.2114063946448936e+16 U: 4306064.497605294 E_J: 2.048081024728147e-08 E_tot: 2.422812790292491e+16
H 11660328.556270452 -1138362.690088026 0
H 7374638.130605627 -719963.7835029595 0
2
step: 46 K1: 1.2114740513793126e+16 K2: 1.2114740508071992e+16 U: 4346516.844826593 E_J: 2.029019861813961e-08 E_tot: 2.4229481026211636e+16
H 11769792.048822314 -1149843.44642565 0
H 7443868.922077473 -727224.8513660424 0
2
step: 47 K1: 1.2115423391399836e+16 K2: 1.2115423385678542e+16 U: 4386970.311992394 E_J: 2.0103097124828565e-08 E_tot: 2.4230846781465348e+16
H 11879257.449404523 -1161335.4699522255 0
H 7513100.920293668 -734493.0452251133 0
2
step: 48 K1: 1.2116112585698398e+16 K2: 1.211611257997694e+16 U: 4427424.909481707 E_J: 1.9919409646121843e-08 E_tot: 2.423222517010276e+16
H 11988724.785306526 -1172838.7641536293 0
H 7582334.142513573 -741768.3672848343 0
2
step: 49 K1: 1.211680809740372e+16 K2: 1.2116808091682098e+16 U: 4467880.647675015 E_J: 1.973904353861134e-08 E_tot: 2.4233616193553696e+16
H 12098194.083817586 -1184353.3325242375 0
H 7651568.605996433 -749050.8197552427 0
2
step: 50 K1: 1.211750992723725e+16 K2: 1.2117509921515462e+16 U: 4508337.536954225 E_J: 1.956190948082636e-08 E_tot: 2.423501985326105e+16
H 12207665.37222679 -1195879.1785669255 0
H 7720804.328001381 -756340.4048517516 0
2
step: 51 K1: 1.2118218075926984e+16 K2: 1.211821807020503e+16 U: 4548795.587702621 E_J: 1.9387921325662333e-08 E_tot: 2.4236436150680812e+16
H 12317138.677823052 -1207416.3057930695 0
H 7790041.325787443 -763637.1247951506 0
2
step: 52 K1: 1.2118932544207472e+16 K2: 1.211893253848535e+16 U: 4589254.810304812 E_J: 1.921699596060698e-08 E_tot: 2.423786508728208e+16
H 12426614.02789512 -1218964.717722548 0
H 7859279.616613538 -770940.9818116057 0
2
step: 53 K1: 1.211965333281981e+16 K2: 1.2119653327097516e+16 U: 4629715.215146699 E_J: 1.9049053175287378e-08 E_tot: 2.4239306664547044e+16
H 12536091.449731587 -1230524.4178837412 0
H 7928519.217738486 -778251.9781326611 0
2
step: 54 K1: 1.2120380442511644e+16 K2: 1.2120380436789178e+16 U: 4670176.812615425 E_J: 1.8884015535894545e-08 E_tot: 2.4240760883971e+16
H 12645570.970620882 -1242095.4098135333 0
H 7997760.146421007 -785570.1159952384 0
2
step: 55 K1: 1.2121113874037166e+16 K2: 1.2121113868314528e+16 U: 4710639.613099344 E_J: 1.8721808266072407e-08 E_tot: 2.4242227747062336e+16
H 12755052.61785129 -1253677.6970573128 0
H 8067002.419919728 -792895.3976416383 0
2
step: 56 K1: 1.2121853628157132e+16 K2: 1.2121853622434318e+16 U: 4751103.626987978 E_J: 1.8562359133886286e-08 E_tot: 2.424370725534255e+16
H 12864536.418710954 -1265271.2831689734 0
H 8136246.055493186 -800227.8253195405 0
2
step: 57 K1: 1.2122599705638838e+16 K2: 1.212259969991585e+16 U: 4791568.864671995 E_J: 1.8405598344511838e-08 E_tot: 2.4245199410346256e+16
H 12974022.400487877 -1276876.1717109152 0
H 8205491.070399828 -807567.4012820044 0
2
step: 58 K1: 1.2123352107256144e+16 K2: 1.2123352101532978e+16 U: 4832035.3365431605 E_J: 1.8251458438309685e-08 E_tot: 2.4246704213621156e+16
H 13083510.590469928 -1288492.366254045 0
H 8274737.481898019 -814914.1277874702 0
2
step: 59 K1: 1.2124110833789454e+16 K2: 1.2124110828066108e+16 U: 4872503.052994321 E_J: 1.809987419397278e-08 E_tot: 2.4248221666728064e+16
H 13193001.015944853 -1300119.870377778 0
H 8343985.307246044 -822268.0070997587 0
2
step: 60 K1: 1.2124875886025738e+16 K2: 1.2124875880302212e+16 U: 4912972.024419367 E_J: 1.7950782536454596e-08 E_tot: 2.4249751771240924e+16
H 13302493.704200273 -1311758.6876700385 0
H 8413234.56370211 -829629.0414880724 0
2
step: 61 K1: 1.2125647264758522e+16 K2: 1.2125647259034814e+16 U: 4953442.261213207 E_J: 1.7804122449404945e-08 E_tot: 2.425129452874678e+16
H 13411988.682523696 -1323408.8217272607 0
H 8482485.268524352 -836997.2332269958 0
2
step: 62 K1: 1.212642497078788e+16 K2: 1.2126424965063988e+16 U: 4993913.773771741 E_J: 1.7659834891858067e-08 E_tot: 2.425284994084578e+16
H 13521485.978202518 -1335070.2761543891 0
H 8551737.438970838 -844372.5845964964 0
2
step: 63 K1: 1.2127209004920452e+16 K2: 1.2127208999196376e+16 U: 5034386.572491843 E_J: 1.7517862718934038e-08 E_tot: 2.4254418009151216e+16
H 13630985.618524032 -1346743.054564881 0
H 8620991.092299562 -851755.097881925 0
2
step: 64 K1: 1.2127999367969436e+16 K2: 1.2127999362245174e+16 U: 5074860.667771325 E_J: 1.7378150606329715e-08 E_tot: 2.4255998735289468e+16
H 13740487.63077543 -1358427.1605807054 0
H 8690246.245768463 -859144.775374016 0
2
step: 65 K1: 1.2128796060754592e+16 K2: 1.212879605503014e+16 U: 5115336.070008928 E_J: 1.724064497838962e-08 E_tot: 2.4257592120900068e+16
H 13849992.042243812 -1370122.5978323456 0
H 8759502.916635418 -866541.6193688888 0
2
step: 66 K1: 1.212959908410224e+16 K2: 1.2129599078377598e+16 U: 5155812.789604289 E_J: 1.7105293939560303e-08 E_tot: 2.4259198167635652e+16
H 13959498.88021619 -1381829.3699587998 0
H 8828761.122158248 -873945.6321680476 0
2
step: 67 K1: 1.2130408438845256e+16 K2: 1.2130408433120424e+16 U: 5196290.836957933 E_J: 1.697204720904394e-08 E_tot: 2.4260816877161972e+16
H 14069008.171979494 -1393547.480607581 0
H 8898020.879594723 -881356.8160783824 0
2
step: 68 K1: 1.2131224125823088e+16 K2: 1.2131224120098064e+16 U: 5236770.222471244 E_J: 1.6840856058478306e-08 E_tot: 2.4262448251157924e+16
H 14178519.944820577 -1405276.9334347197 0
H 8967282.206202565 -888775.1734121698 0
2
step: 69 K1: 1.2132046145881742e+16 K2: 1.2132046140156522e+16 U: 5277250.956546456 E_J: 1.671167325248086e-08 E_tot: 2.4264092291315516e+16
H 14288034.226026222 -1417017.732104763 0
H 9036545.11923945 -896200.7064870731 0
2
step: 70 K1: 1.2132874499873794e+16 K2: 1.213287449414838e+16 U: 5317733.049586628 E_J: 1.658445299190456e-08 E_tot: 2.4265748999339908e+16
H 14397551.042883145 -1428769.880290777 0
H 9105809.635963012 -903633.4176261432 0
2
step: 71 K1: 1.213370918865838e+16 K2: 1.213370918293277e+16 U: 5358216.511995636 E_J: 1.6459150859662136e-08 E_tot: 2.426741837694937e+16
H 14507070.422678001 -1440533.3816743472 0
H 9175075.773630846 -911073.3091578191 0
2
step: 72 K1: 1.213455021310121e+16 K2: 1.21345502073754e+16 U: 5398701.354178149 E_J: 1.6335723768984336e-08 E_tot: 2.4269100425875308e+16
H 14616592.392697394 -1452308.2399455798 0
H 9244343.549500518 -918520.3834159289 0
2
step: 73 K1: 1.2135397574074554e+16 K2: 1.2135397568348546e+16 U: 5439187.586539625 E_J: 1.6214129913985323e-08 E_tot: 2.427079514786229e+16
H 14726116.980227876 -1464094.4588031017 0
H 9313612.980829557 -925974.6427396898 0
2
step: 74 K1: 1.2136251272457256e+16 K2: 1.2136251266731046e+16 U: 5479675.219486286 E_J: 1.60943287224163e-08 E_tot: 2.427250254466798e+16
H 14835644.21255596 -1475892.0419540629 0
H 9382884.08487547 -933436.0894737091 0
2
step: 75 K1: 1.213711130913473e+16 K2: 1.2137111303408316e+16 U: 5520164.263425115 E_J: 1.5976280810494993e-08 E_tot: 2.4274222618063212e+16
H 14945174.116968116 -1487700.9931141364 0
H 9452156.878895737 -940904.7259679849 0
2
step: 76 K1: 1.213797768499896e+16 K2: 1.2137977679272342e+16 U: 5560654.728763839 E_J: 1.585994793970551e-08 E_tot: 2.427595536983196e+16
H 15054706.720750785 -1499521.3160075196 0
H 9521431.380147817 -948380.5545779063 0
2
step: 77 K1: 1.2138850400948496e+16 K2: 1.2138850395221672e+16 U: 5601146.625910917 E_J: 1.574529297546894e-08 E_tot: 2.4277700801771316e+16
H 15164242.05119038 -1511353.014366935 0
H 9590707.605889155 -955863.5776642545 0
2
step: 78 K1: 1.2139729457888468e+16 K2: 1.2139729452161436e+16 U: 5641639.965275534 E_J: 1.5632279847590844e-08 E_tot: 2.4279458915691544e+16
H 15273780.135573298 -1523196.091933632 0
H 9659985.573377179 -963353.7975932031 0
2
step: 79 K1: 1.2140614856730582e+16 K2: 1.2140614851003342e+16 U: 5682134.757267583 E_J: 1.5520873512397245e-08 E_tot: 2.428122971341606e+16
H 15383321.001185913 -1535050.5524573869 0
H 9729265.299869312 -970851.2167363191 0
2
step: 80 K1: 1.2141506598393106e+16 K2: 1.2141506592665656e+16 U: 5722631.012297662 E_J: 1.5411039916475485e-08 E_tot: 2.428301319678139e+16
H 15492864.675314596 -1546916.3996965042 0
H 9798546.802622968 -978355.8374705631 0
2
step: 81 K1: 1.2142404683800898e+16 K2: 1.2142404678073236e+16 U: 5763128.740777058 E_J: 1.5302745961941258e-08 E_tot: 2.4284809367637264e+16
H 15602411.18524571 -1558793.6374178184 0
H 9867830.09889556 -985867.6621782901 0
2
step: 82 K1: 1.2143309113885382e+16 K2: 1.2143309108157508e+16 U: 5803627.953117746 E_J: 1.5195959473157315e-08 E_tot: 2.4286618227846516e+16
H 15711960.558265619 -1570682.2693966937 0
H 9937115.205944497 -993386.69324725 0
2
step: 83 K1: 1.2144219889584566e+16 K2: 1.2144219883856476e+16 U: 5844128.659732376 E_J: 1.5090649164833607e-08 E_tot: 2.428843977928517e+16
H 15821512.821660697 -1582582.2994170256 0
H 10006402.1410272 -1000912.9330705889 0
2
step: 84 K1: 1.2145137011843032e+16 K2: 1.2145137006114726e+16 U: 5884630.8710342655 E_J: 1.4986784611442377e-08 E_tot: 2.429027402384239e+16
H 15931068.002717331 -1594493.7312712425 0
H 10075690.92140109 -1008446.3840468486 0
2
step: 85 K1: 1.2146060481611952e+16 K2: 1.2146060475883428e+16 U: 5925134.597437392 E_J: 1.4884336217885446e-08 E_tot: 2.4292120963420516e+16
H 16040626.128721923 -1606416.5687603054 0
H 10144981.56432361 -1015987.0485799685 0
2
step: 86 K1: 1.2146990299849064e+16 K2: 1.214699029412032e+16 U: 5965639.849356383 E_J: 1.4783275191354246e-08 E_tot: 2.4293980599935024e+16
H 16150187.226960897 -1618350.8156937105 0
H 10214274.087052207 -1023534.9290792851 0
2
step: 87 K1: 1.2147926467518694e+16 K2: 1.214792646178973e+16 U: 6006146.63720652 E_J: 1.4683573514326392e-08 E_tot: 2.4295852935314572e+16
H 16259751.324720714 -1630296.475889489 0
H 10283568.506844355 -1031090.0279595335 0
2
step: 88 K1: 1.2148868985591752e+16 K2: 1.2148868979862566e+16 U: 6046654.97140372 E_J: 1.4585203918645655e-08 E_tot: 2.4297737971500976e+16
H 16369318.449287863 -1642253.5531742086 0
H 10352864.840957543 -1038652.3476408476 0
2
step: 89 K1: 1.2149817855045736e+16 K2: 1.2149817849316326e+16 U: 6087164.862364534 E_J: 1.448813986063491e-08 E_tot: 2.4299635710449228e+16
H 16478888.627948876 -1654222.0513829745 0
H 10422163.10664929 -1046221.8905487608 0
2
step: 90 K1: 1.2150773076864718e+16 K2: 1.2150773071135084e+16 U: 6127676.320506148 E_J: 1.439235549719433e-08 E_tot: 2.4301546154127476e+16
H 16588461.887990331 -1666201.9743594301 0
H 10491463.321177144 -1053798.6591142067 0
2
step: 91 K1: 1.2151734652039368e+16 K2: 1.2151734646309506e+16 U: 6168189.356246363 E_J: 1.4297825662839714e-08 E_tot: 2.430346930451706e+16
H 16698038.256698858 -1678193.3259557588 0
H 10560765.501798684 -1061382.65577352 0
2
step: 92 K1: 1.2152702581566936e+16 K2: 1.2152702575836844e+16 U: 6208703.980003604 E_J: 1.4204525847637957e-08 E_tot: 2.4305405163612484e+16
H 16807617.76136114 -1690196.1100326844 0
H 10630069.665771525 -1068973.882968437 0
2
step: 93 K1: 1.215367686645126e+16 K2: 1.215367686072094e+16 U: 6249220.202196912 E_J: 1.4112432175999134e-08 E_tot: 2.430735373342142e+16
H 16917200.429263934 -1702210.3304594723 0
H 10699375.830353325 -1076572.3431460958 0
2
step: 94 K1: 1.2154657507702766e+16 K2: 1.2154657501972214e+16 U: 6289738.03324593 E_J: 1.4021521386286644e-08 E_tot: 2.430931501596472e+16
H 17026786.28769405 -1714235.9911139305 0
H 10768684.012801781 -1084178.0387590374 0
2
step: 95 K1: 1.2155644506338476e+16 K2: 1.2155644500607692e+16 U: 6330257.483570917 E_J: 1.3931770811208722e-08 E_tot: 2.4311289013276424e+16
H 17136375.363938387 -1726273.0958824106 0
H 10837994.23037464 -1091790.9722652067 0
2
step: 96 K1: 1.2156637863381998e+16 K2: 1.215663785765098e+16 U: 6370778.5635927245 E_J: 1.3843158358956786e-08 E_tot: 2.4313275727403756e+16
H 17245967.685283914 -1738321.6486598095 0
H 10907306.500329698 -1099411.1461279527 0
2
step: 97 K1: 1.2157637579863536e+16 K2: 1.2157637574132282e+16 U: 6411301.2837328045 E_J: 1.3755662495057478e-08 E_tot: 2.4315275160407116e+16
H 17355563.279017683 -1750381.6533495693 0
H 10976620.839924803 -1107038.562816029 0
2
step: 98 K1: 1.2158643656819882e+16 K2: 1.2158643651088392e+16 U: 6451825.6544132065 E_J: 1.3669262224907177e-08 E_tot: 2.4317287314360096e+16
H 17465162.172426846 -1762453.1138636796 0
H 11045937.266417865 -1114673.2248035946 0
2
step: 99 K1: 1.2159656095294428e+16 K2: 1.2159656089562698e+16 U: 6492351.686056574 E_J: 1.3583937076959222e-08 E_tot: 2.431931219134948e+16
H 17574764.392798647 -1774536.0341226773 0
H 11115255.797066849 -1122315.1345702154 0
2
step: 100 K1: 1.2160674896337156e+16 K2: 1.2160674890605188e+16 U: 6532879.389086129 E_J: 1.3499667086535567e-08 E_tot: 2.4321349793475224e+16
H 17684369.96742043 -1786630.4180556487 0
H 11184576.44912979 -1129964.2946008632 0
2
step: 101 K1: 1.2161700061004654e+16 K2: 1.2161700055272444e+16 U: 6573408.773925689 E_J: 1.3416432780235902e-08 E_tot: 2.4323400122850504e+16
H 17793978.923579644 -1798736.2696002303 0
H 11253899.239864787 -1137620.7073859184 0
2
step: 102 K1: 1.2162731590360096e+16 K2: 1.2162731584627642e+16 U: 6613939.8509996515 E_J: 1.3334215160918793e-08 E_tot: 2.4325463181601676e+16
H 17903591.288563862 -1810853.5927026095 0
H 11323224.186530013 -1145284.3754211687 0
2
step: 103 K1: 1.2163769485473268e+16 K2: 1.2163769479740568e+16 U: 6654472.630732993 E_J: 1.3252995693230412e-08 E_tot: 2.4327538971868308e+16
H 18013207.089660764 -1822982.391317526 0
H 11392551.306383714 -1152955.3012078116 0
2
step: 104 K1: 1.2164813747420544e+16 K2: 1.21648137416876e+16 U: 6695007.123551271 E_J: 1.3172756289657743e-08 E_tot: 2.432962749580315e+16
H 18122826.35415816 -1835122.6694082732 0
H 11461880.616684217 -1160633.4872524533 0
2
step: 105 K1: 1.2165864377284904e+16 K2: 1.2165864371551712e+16 U: 6735543.33988062 E_J: 1.3093479297084219e-08 E_tot: 2.433172875557216e+16
H 18232449.109343987 -1847274.4309466982 0
H 11531212.134689929 -1168318.936067111 0
2
step: 106 K1: 1.2166921376155936e+16 K2: 1.2166921370422494e+16 U: 6776081.290147747 E_J: 1.3015147483826786e-08 E_tot: 2.433384275335451e+16
H 18342075.38250632 -1859437.679913204 0
H 11600545.877659343 -1176011.6501692126 0
2
step: 107 K1: 1.216798474512982e+16 K2: 1.2167984739396128e+16 U: 6816620.984779939 E_J: 1.2937744027134399e-08 E_tot: 2.433596949134257e+16
H 18451705.20093337 -1871612.4202967503 0
H 11669881.86285104 -1183711.6320815973 0
2
step: 108 K1: 1.2169054485309346e+16 K2: 1.2169054479575402e+16 U: 6857162.434205045 E_J: 1.286125250112896e-08 E_tot: 2.433810897174191e+16
H 18561338.591913503 -1883798.6560948542 0
H 11739220.107523696 -1191418.8843325174 0
2
step: 109 K1: 1.2170130597803916e+16 K2: 1.2170130592069718e+16 U: 6897705.648851492 E_J: 1.2785656865170413e-08 E_tot: 2.4340261196771336e+16
H 18670975.58273523 -1895996.391313592 0
H 11808560.628936084 -1199133.4094556374 0
2
step: 110 K1: 1.2171213083729528e+16 K2: 1.2171213077995076e+16 U: 6938250.639148275 E_J: 1.2710941452628822e-08 E_tot: 2.4342426168662856e+16
H 18780616.200687222 -1908205.6299675992 0
H 11877903.444347072 -1206855.2099900364 0
2
step: 111 K1: 1.21723019442088e+16 K2: 1.2172301938474092e+16 U: 6978797.415524955 E_J: 1.263709096004685e-08 E_tot: 2.434460388966169e+16
H 18890260.473058313 -1920426.376080073 0
H 11947248.571015636 -1214584.2884802073 0
2
step: 112 K1: 1.2173397180370952e+16 K2: 1.2173397174635984e+16 U: 7019345.988411659 E_J: 1.2564090436676894e-08 E_tot: 2.434679436202628e+16
H 18999908.427137505 -1932658.6336827723 0
H 12016596.026200853 -1222320.6474760585 0
2
step: 113 K1: 1.217449879335181e+16 K2: 1.2174498787616584e+16 U: 7059896.368239086 E_J: 1.2491925274377877e-08 E_tot: 2.434899758802829e+16
H 19109560.090213977 -1944902.4068160192 0
H 12085945.827161917 -1230064.2895329138 0
2
step: 114 K1: 1.2175606784293822e+16 K2: 1.2175606778558334e+16 U: 7100448.565438494 E_J: 1.242058119785734e-08 E_tot: 2.4351213569952604e+16
H 19219215.489577085 -1957157.6995287002 0
H 12155297.991158133 -1237815.2172115142 0
2
step: 115 K1: 1.2176721154346042e+16 K2: 1.2176721148610292e+16 U: 7141002.590441707 E_J: 1.2350044255245164e-08 E_tot: 2.435344231009734e+16
H 19328874.65251637 -1969424.5158782674 0
H 12224652.535448924 -1245573.4330780176 0
2
step: 116 K1: 1.2177841904664138e+16 K2: 1.2177841898928124e+16 U: 7181558.453681117 E_J: 1.2280300808985779e-08 E_tot: 2.4355683810773824e+16
H 19438537.606321566 -1981702.8599307393 0
H 12294009.47729383 -1253338.9397039998 0
2
step: 117 K1: 1.2178969036410396e+16 K2: 1.2178969030674116e+16 U: 7222116.165589679 E_J: 1.2211337527036495e-08 E_tot: 2.4357938074306628e+16
H 19548204.378282607 -1993992.7357607018 0
H 12363368.83395252 -1261111.7396664554 0
2
step: 118 K1: 1.2180102550753722e+16 K2: 1.2180102545017176e+16 U: 7262675.736600907 E_J: 1.2143141374359911e-08 E_tot: 2.4360205103033572e+16
H 19657874.99568962 -2006294.1474513104 0
H 12432730.62268479 -1268891.8355477985 0
2
step: 119 K1: 1.2181242448869634e+16 K2: 1.2181242443132818e+16 U: 7303237.177148884 E_J: 1.2075699604699036e-08 E_tot: 2.436248489930569e+16
H 19767549.48583295 -2018607.0990942896 0
H 12502094.860750565 -1276679.229935863 0
2
step: 120 K1: 1.2182388731940268e+16 K2: 1.2182388726203182e+16 U: 7343800.497668254 E_J: 1.2008999752624255e-08 E_tot: 2.436477746548725e+16
H 19877227.876003146 -2030931.5947899357 0
H 12571461.565409908 -1284473.9254239039 0
2
step: 121 K1: 1.218354140115438e+16 K2: 1.2183541395417024e+16 U: 7384365.708594225 E_J: 1.1943029625841658e-08 E_tot: 2.436708280395577e+16
H 19986910.193490986 -2043267.638647117 0
H 12640830.75392302 -1292275.9246105975 0
2
step: 122 K1: 1.2184700457707352e+16 K2: 1.2184700451969724e+16 U: 7424932.820362567 E_J: 1.187777729775283e-08 E_tot: 2.436940091710201e+16
H 20096596.465587463 -2055615.2347832748 0
H 12710202.44355024 -1300085.230100043 0
2
step: 123 K1: 1.2185865902801192e+16 K2: 1.218586589706329e+16 U: 7465501.843409617 E_J: 1.1813231100256483e-08 E_tot: 2.437173180732998e+16
H 20206286.71958381 -2067974.3873244256 0
H 12779576.651552059 -1307901.8445017615 0
2
step: 124 K1: 1.2187037737644522e+16 K2: 1.2187037731906342e+16 U: 7506072.788172268 E_J: 1.1749379616782904e-08 E_tot: 2.4374075477056936e+16
H 20315980.982771482 -2080345.100405161 0
H 12848953.395189112 -1315725.7704306988 0
2
step: 125 K1: 1.218821596345259e+16 K2: 1.2188215957714134e+16 U: 7546645.665087986 E_J: 1.1686211675552385e-08 E_tot: 2.437643192871337e+16
H 20425679.28244219 -2092727.3781686495 0
H 12918332.69172219 -1323557.0105072248 0
2
step: 126 K1: 1.2189400581447278e+16 K2: 1.2189400575708542e+16 U: 7587220.484594799 E_J: 1.1623716343049347e-08 E_tot: 2.437880116474304e+16
H 20535381.645887885 -2105121.2247666377 0
H 12987714.558412237 -1331395.5673571345 0
2
step: 127 K1: 1.2190591592857092e+16 K2: 1.2190591587118076e+16 U: 7627797.257131293 E_J: 1.1561882917704137e-08 E_tot: 2.4381183187602964e+16
H 20645088.10040077 -2117526.6443594513 0
H 13057099.01252036 -1339241.443611649 0
2
step: 128 K1: 1.2191788998917166e+16 K2: 1.2191788993177868e+16 U: 7668375.9931366285 E_J: 1.150070092377478e-08 E_tot: 2.438357799976341e+16
H 20754798.673273303 -2129943.6411159965 0
H 13126486.071307827 -1347094.641907416 0
2
step: 129 K1: 1.2192992800869264e+16 K2: 1.2192992795129682e+16 U: 7708956.703050528 E_J: 1.1440160105421406e-08 E_tot: 2.43859856037079e+16
H 20864513.391798213 -2142372.2192137605 0
H 13195875.752036072 -1354955.1648865102 0
2
step: 130 K1: 1.2194202999961782e+16 K2: 1.2194202994221916e+16 U: 7749539.397313276 E_J: 1.1380250420966291e-08 E_tot: 2.4388406001933236e+16
H 20974232.283268493 -2154812.3828388136 0
H 13265268.071966702 -1362823.0151964352 0
2
step: 131 K1: 1.2195419597449754e+16 K2: 1.2195419591709602e+16 U: 7790124.086365735 E_J: 1.1320962037332711e-08 E_tot: 2.439083919694948e+16
H 21083955.374977414 -2167264.1361858095 0
H 13334663.048361495 -1370698.1954901225 0
2