2
Step 1/20000
H  0.      0.0005 -0.3   
H 0. 0. 1.
2
Step 2/20000
H  0.       0.001   -0.30002
H  0.00000e+00 -6.73077e-09  1.00002e+00
2
Step 3/20000
H  0.       0.0015  -0.30005
H  0.00000e+00 -2.69222e-08  1.00005e+00
2
Step 4/20000
H  0.      0.002  -0.3001
H  0.0000e+00 -6.7302e-08  1.0001e+00
2
Step 5/20000
H  0.       0.0025  -0.30017
H  0.00000e+00 -1.34594e-07  1.00017e+00
2
Step 6/20000
H  0.       0.003   -0.30026
H  0.00000e+00 -2.35518e-07  1.00026e+00
2
Step 7/20000
H  0.       0.0035  -0.30037
H  0.00000e+00 -3.76785e-07  1.00037e+00
2
Step 8/20000
H  0.       0.004   -0.30049
H  0.00000e+00 -5.65102e-07  1.00049e+00
2
Step 9/20000
H  0.       0.0045  -0.30063
H  0.00000e+00 -8.07163e-07  1.00063e+00
2
Step 11/20000
H  0.       0.0055  -0.30096
H  0.00000e+00 -1.47925e-06  1.00096e+00
2
Step 12/20000
H  0.       0.006   -0.30115
H  0.00000e+00 -1.92261e-06  1.00115e+00
2
Step 13/20000
H  0.       0.0065  -0.30136
H  0.00000e+00 -2.44638e-06  1.00136e+00
2
Step 14/20000
H  0.       0.007   -0.30159
H  0.00000e+00 -3.05718e-06  1.00159e+00
2
Step 15/20000
H  0.       0.0075  -0.30184
H  0.00000e+00 -3.76164e-06  1.00184e+00
2
Step 16/20000
H  0.      0.008  -0.3021
H  0.00000e+00 -4.56634e-06  1.00210e+00
2
Step 17/20000
H  0.       0.00851 -0.30238
H  0.00000e+00 -5.47786e-06  1.00238e+00
2
Step 18/20000
H  0.       0.00901 -0.30267
H  0.00000e+00 -6.50275e-06  1.00267e+00
2
Step 19/20000
H  0.       0.00951 -0.30299
H  0.00000e+00 -7.64755e-06  1.00299e+00
2
Step 21/20000
H  0.       0.01051 -0.30367
H  0.00000e+00 -1.03228e-05  1.00367e+00
2
Step 22/20000
H  0.       0.01101 -0.30403
H  0.00000e+00 -1.18663e-05  1.00403e+00
2
Step 23/20000
H  0.       0.01151 -0.30442
H  0.00000e+00 -1.35554e-05  1.00442e+00
2
Step 24/20000
H  0.       0.01202 -0.30482
H  0.00000e+00 -1.53968e-05  1.00482e+00
2
Step 25/20000
H  0.       0.01252 -0.30524
H  0.00000e+00 -1.73967e-05  1.00524e+00
2
Step 26/20000
H  0.       0.01302 -0.30567
H  0.00000e+00 -1.95614e-05  1.00567e+00
2
Step 27/20000
H  0.       0.01352 -0.30612
H  0.00000e+00 -2.18973e-05  1.00612e+00
2
Step 28/20000
H  0.       0.01402 -0.30659
H  0.00000e+00 -2.44107e-05  1.00659e+00
2
Step 29/20000
H  0.       0.01453 -0.30708
H  0.00000e+00 -2.71077e-05  1.00708e+00
2
Step 31/20000
H  0.       0.01553 -0.30811
H  0.00000e+00 -3.30774e-05  1.00811e+00
2
Step 32/20000
H  0.       0.01604 -0.30864
H  0.00000e+00 -3.63624e-05  1.00864e+00
2
Step 33/20000
H  0.       0.01654 -0.3092 
H  0.00000e+00 -3.98556e-05  1.00920e+00
2
Step 34/20000
H  0.       0.01704 -0.30977
H  0.00000e+00 -4.35630e-05  1.00977e+00
2
Step 35/20000
H  0.       0.01755 -0.31036
H  0.00000e+00 -4.74907e-05  1.01036e+00
2
Step 36/20000
H  0.       0.01805 -0.31097
H  0.00000e+00 -5.16446e-05  1.01097e+00
2
Step 37/20000
H  0.       0.01856 -0.31159
H  0.00000e+00 -5.60305e-05  1.01159e+00
2
Step 38/20000
H  0.       0.01906 -0.31223
H  0.00000e+00 -6.06544e-05  1.01223e+00
2
Step 39/20000
H  0.       0.01957 -0.31289
H  0.00000e+00 -6.55220e-05  1.01289e+00
2
Step 41/20000
H  0.       0.02058 -0.31425
H  0.00000e+00 -7.60114e-05  1.01425e+00
2
Step 42/20000
H  0.       0.02108 -0.31496
H  0.00000e+00 -8.16446e-05  1.01496e+00
2
Step 43/20000
H  0.       0.02159 -0.31568
H  0.00000e+00 -8.75443e-05  1.01568e+00
2
Step 44/20000
H  0.       0.02209 -0.31642
H  0.00000e+00 -9.37160e-05  1.01642e+00
2
Step 45/20000
H  0.       0.0226  -0.31718
H  0.00000e+00 -1.00165e-04  1.01718e+00
2
Step 46/20000
H  0.       0.02311 -0.31796
H  0.00000e+00 -1.06897e-04  1.01796e+00
2
Step 47/20000
H  0.       0.02361 -0.31875
H  0.00000e+00 -1.13918e-04  1.01875e+00
2
Step 48/20000
H  0.       0.02412 -0.31955
H  0.00000e+00 -1.21232e-04  1.01955e+00
2
Step 49/20000
H  0.       0.02463 -0.32038
H  0.00000e+00 -1.28846e-04  1.02038e+00
2
Step 51/20000
H  0.       0.02564 -0.32207
H  0.00000e+00 -1.44990e-04  1.02207e+00
2
Step 52/20000
H  0.       0.02615 -0.32295
H  0.00000e+00 -1.53531e-04  1.02295e+00
2
Step 53/20000
H  0.       0.02666 -0.32384
H  0.00000e+00 -1.62391e-04  1.02384e+00
2
Step 54/20000
H  0.       0.02717 -0.32474
H  0.00000e+00 -1.71576e-04  1.02474e+00
2
Step 55/20000
H  0.       0.02768 -0.32566
H  0.00000e+00 -1.81091e-04  1.02566e+00
2
Step 56/20000
H  0.       0.02819 -0.3266 
H  0.00000e+00 -1.90939e-04  1.02660e+00
2
Step 57/20000
H  0.       0.0287  -0.32756
H  0.00000e+00 -2.01127e-04  1.02756e+00
2
Step 58/20000
H  0.       0.02921 -0.32853
H  0.00000e+00 -2.11658e-04  1.02853e+00
2
Step 59/20000
H  0.       0.02972 -0.32951
H  0.00000e+00 -2.22537e-04  1.02951e+00
2
Step 61/20000
H  0.       0.03075 -0.33154
H  0.00000e+00 -2.45358e-04  1.03154e+00
2
Step 62/20000
H  0.       0.03126 -0.33257
H  0.00000e+00 -2.57309e-04  1.03257e+00
2
Step 63/20000
H  0.       0.03177 -0.33362
H  0.00000e+00 -2.69627e-04  1.03362e+00
2
Step 64/20000
H  0.       0.03228 -0.33469
H  0.00000e+00 -2.82314e-04  1.03469e+00
2
Step 65/20000
H  0.       0.0328  -0.33577
H  0.00000e+00 -2.95376e-04  1.03577e+00
2
Step 66/20000
H  0.       0.03331 -0.33687
H  0.00000e+00 -3.08817e-04  1.03687e+00
2
Step 67/20000
H  0.       0.03382 -0.33798
H  0.00000e+00 -3.22641e-04  1.03798e+00
2
Step 68/20000
H  0.       0.03434 -0.33911
H  0.00000e+00 -3.36851e-04  1.03911e+00
2
Step 69/20000
H  0.       0.03485 -0.34025
H  0.00000e+00 -3.51452e-04  1.04025e+00
2
Step 71/20000
H  0.       0.03588 -0.34259
H  0.00000e+00 -3.81842e-04  1.04259e+00
2
Step 72/20000
H  0.       0.0364  -0.34378
H  0.00000e+00 -3.97637e-04  1.04378e+00
2
Step 73/20000
H  0.       0.03691 -0.34498
H  0.00000e+00 -4.13839e-04  1.04498e+00
2
Step 74/20000
H  0.       0.03743 -0.3462 
H  0.00000e+00 -4.30449e-04  1.04620e+00
2
Step 75/20000
H  0.       0.03795 -0.34744
H  0.00000e+00 -4.47472e-04  1.04744e+00
2
Step 76/20000
H  0.       0.03846 -0.34869
H  0.00000e+00 -4.64911e-04  1.04869e+00
2
Step 77/20000
H  0.       0.03898 -0.34996
H  0.00000e+00 -4.82769e-04  1.04996e+00
2
Step 78/20000
H  0.       0.0395  -0.35124
H  0.00000e+00 -5.01050e-04  1.05124e+00
2
Step 79/20000
H  0.       0.04002 -0.35254
H  0.00000e+00 -5.19755e-04  1.05254e+00
2
Step 81/20000
H  0.       0.04106 -0.35517
H  0.00000e+00 -5.58456e-04  1.05517e+00
2
Step 82/20000
H  0.       0.04158 -0.35651
H  0.00000e+00 -5.78456e-04  1.05651e+00
2
Step 83/20000
H  0.       0.0421  -0.35787
H  0.00000e+00 -5.98893e-04  1.05787e+00
2
Step 84/20000
H  0.       0.04262 -0.35924
H  0.00000e+00 -6.19771e-04  1.05924e+00
2
Step 85/20000
H  0.       0.04314 -0.36062
H  0.00000e+00 -6.41090e-04  1.06062e+00
2
Step 86/20000
H  0.       0.04366 -0.36202
H  0.00000e+00 -6.62855e-04  1.06202e+00
2
Step 87/20000
H  0.       0.04419 -0.36344
H  0.00000e+00 -6.85067e-04  1.06344e+00
2
Step 88/20000
H  0.       0.04471 -0.36486
H  0.00000e+00 -7.07729e-04  1.06486e+00
2
Step 89/20000
H  0.       0.04523 -0.36631
H  0.00000e+00 -7.30843e-04  1.06631e+00
2
Step 91/20000
H  0.       0.04628 -0.36923
H  0.00000e+00 -7.78436e-04  1.06923e+00
2
Step 92/20000
H  0.       0.0468  -0.37072
H  0.00000e+00 -8.02919e-04  1.07072e+00
2
Step 93/20000
H  0.       0.04733 -0.37221
H  0.00000e+00 -8.27862e-04  1.07221e+00
2
Step 94/20000
H  0.       0.04785 -0.37372
H  0.00000e+00 -8.53267e-04  1.07372e+00
2
Step 95/20000
H  0.       0.04838 -0.37525
H  0.00000e+00 -8.79136e-04  1.07525e+00
2
Step 96/20000
H  0.       0.04891 -0.37679
H  0.00000e+00 -9.05471e-04  1.07679e+00
2
Step 97/20000
H  0.       0.04943 -0.37834
H  0.00000e+00 -9.32273e-04  1.07834e+00
2
Step 98/20000
H  0.       0.04996 -0.37991
H  0.00000e+00 -9.59544e-04  1.07991e+00
2
Step 99/20000
H  0.       0.05049 -0.38149
H  0.00000e+00 -9.87284e-04  1.08149e+00
2
Step 101/20000
H  0.       0.05154 -0.38469
H  0.00000e+00 -1.04418e-03  1.08469e+00
2
Step 102/20000
H  0.       0.05207 -0.38631
H  0.00000e+00 -1.07334e-03  1.08631e+00
2
Step 103/20000
H  0.       0.0526  -0.38794
H  0.      -0.0011   1.08794
2
Step 104/20000
H  0.       0.05313 -0.38959
H  0.      -0.00113  1.08959
2
Step 105/20000
H  0.       0.05366 -0.39125
H  0.      -0.00116  1.09125
2
Step 106/20000
H  0.       0.05419 -0.39292
H  0.      -0.00119  1.09292
2
Step 107/20000
H  0.       0.05473 -0.3946 
H  0.      -0.00123  1.0946 
2
Step 108/20000
H  0.       0.05526 -0.3963 
H  0.      -0.00126  1.0963 
2
Step 109/20000
H  0.       0.05579 -0.39801
H  0.      -0.00129  1.09801
2
Step 111/20000
H  0.       0.05686 -0.40147
H  0.      -0.00136  1.10147
2
Step 112/20000
H  0.       0.05739 -0.40322
H  0.      -0.00139  1.10322
2
Step 113/20000
H  0.       0.05793 -0.40498
H  0.      -0.00143  1.10498
2
Step 114/20000
H  0.       0.05846 -0.40675
H  0.      -0.00146  1.10675
2
Step 115/20000
H  0.       0.059   -0.40853
H  0.      -0.0015   1.10853
2
Step 116/20000
H  0.       0.05953 -0.41033
H  0.      -0.00153  1.11033
2
Step 117/20000
H  0.       0.06007 -0.41214
H  0.      -0.00157  1.11214
2
Step 118/20000
H  0.       0.0606  -0.41396
H  0.      -0.0016   1.11396
2
Step 119/20000
H  0.       0.06114 -0.41579
H  0.      -0.00164  1.11579
2
Step 121/20000
H  0.       0.06222 -0.41949
H  0.      -0.00172  1.11949
2
Step 122/20000
H  0.       0.06276 -0.42136
H  0.      -0.00176  1.12136
2
Step 123/20000
H  0.       0.0633  -0.42323
H  0.      -0.0018   1.12323
2
Step 124/20000
H  0.       0.06384 -0.42512
H  0.      -0.00184  1.12512
2
Step 125/20000
H  0.       0.06438 -0.42702
H  0.      -0.00188  1.12702
2
Step 126/20000
H  0.       0.06492 -0.42894
H  0.      -0.00192  1.12894
2
Step 127/20000
H  0.       0.06546 -0.43086
H  0.      -0.00196  1.13086
2
Step 128/20000
H  0.       0.066   -0.43279
H  0.      -0.002    1.13279
2
Step 129/20000
H  0.       0.06654 -0.43474
H  0.      -0.00204  1.13474
2
Step 131/20000
H  0.       0.06763 -0.43866
H  0.      -0.00213  1.13866
2
Step 132/20000
H  0.       0.06817 -0.44063
H  0.      -0.00217  1.14063
2
Step 133/20000
H  0.       0.06871 -0.44262
H  0.      -0.00221  1.14262
2
Step 134/20000
H  0.       0.06926 -0.44462
H  0.      -0.00226  1.14462
2
Step 135/20000
H  0.       0.0698  -0.44662
H  0.      -0.0023   1.14662
2
Step 136/20000
H  0.       0.07035 -0.44864
H  0.      -0.00235  1.14864
2
Step 137/20000
H  0.       0.07089 -0.45067
H  0.      -0.00239  1.15067
2
Step 138/20000
H  0.       0.07144 -0.45271
H  0.      -0.00244  1.15271
2
Step 139/20000
H  0.       0.07199 -0.45475
H  0.      -0.00249  1.15475
2
Step 141/20000
H  0.       0.07308 -0.45888
H  0.      -0.00258  1.15888
2
Step 142/20000
H  0.       0.07363 -0.46095
H  0.      -0.00263  1.16095
2
Step 143/20000
H  0.       0.07418 -0.46304
H  0.      -0.00268  1.16304
2
Step 144/20000
H  0.       0.07473 -0.46513
H  0.      -0.00273  1.16513
2
Step 145/20000
H  0.       0.07528 -0.46723
H  0.      -0.00278  1.16723
2
Step 146/20000
H  0.       0.07583 -0.46935
H  0.      -0.00283  1.16935
2
Step 147/20000
H  0.       0.07638 -0.47147
H  0.      -0.00288  1.17147
2
Step 148/20000
H  0.       0.07693 -0.4736 
H  0.      -0.00293  1.1736 
2
Step 149/20000
H  0.       0.07748 -0.47574
H  0.      -0.00298  1.17574
2
Step 151/20000
H  0.       0.07858 -0.48004
H  0.      -0.00308  1.18004
2
Step 152/20000
H  0.       0.07913 -0.48221
H  0.      -0.00313  1.18221
2
Step 153/20000
H  0.       0.07969 -0.48438
H  0.      -0.00319  1.18438
2
Step 154/20000
H  0.       0.08024 -0.48656
H  0.      -0.00324  1.18656
2
Step 155/20000
H  0.       0.08079 -0.48875
H  0.      -0.00329  1.18875
2
Step 156/20000
H  0.       0.08135 -0.49095
H  0.      -0.00335  1.19095
2
Step 157/20000
H  0.       0.0819  -0.49316
H  0.      -0.0034   1.19316
2
Step 158/20000
H  0.       0.08246 -0.49537
H  0.      -0.00346  1.19537
2
Step 159/20000
H  0.       0.08301 -0.49759
H  0.      -0.00351  1.19759
2
Step 161/20000
H  0.       0.08412 -0.50206
H  0.      -0.00362  1.20206
2
Step 162/20000
H  0.       0.08468 -0.5043 
H  0.      -0.00368  1.2043 
2
Step 163/20000
H  0.       0.08523 -0.50655
H  0.      -0.00373  1.20655
2
Step 164/20000
H  0.       0.08579 -0.50881
H  0.      -0.00379  1.20881
2
Step 165/20000
H  0.       0.08635 -0.51107
H  0.      -0.00385  1.21107
2
Step 166/20000
H  0.       0.08691 -0.51334
H  0.      -0.00391  1.21334
2
Step 167/20000
H  0.       0.08746 -0.51562
H  0.      -0.00396  1.21562
2
Step 168/20000
H  0.       0.08802 -0.51791
H  0.      -0.00402  1.21791
2
Step 169/20000
H  0.       0.08858 -0.5202 
H  0.      -0.00408  1.2202 
2
Step 171/20000
H  0.      0.0897 -0.5248
H  0.     -0.0042  1.2248
2
Step 172/20000
H  0.       0.09026 -0.52711
H  0.      -0.00426  1.22711
2
Step 173/20000
H  0.       0.09082 -0.52943
H  0.      -0.00432  1.22943
2
Step 174/20000
H  0.       0.09138 -0.53175
H  0.      -0.00438  1.23175
2
Step 175/20000
H  0.       0.09194 -0.53408
H  0.      -0.00444  1.23408
2
Step 176/20000
H  0.       0.0925  -0.53641
H  0.      -0.0045   1.23641
2
Step 177/20000
H  0.       0.09306 -0.53875
H  0.      -0.00456  1.23875
2
Step 178/20000
H  0.       0.09363 -0.5411 
H  0.      -0.00463  1.2411 
2
Step 179/20000
H  0.       0.09419 -0.54345
H  0.      -0.00469  1.24345
2
Step 181/20000
H  0.       0.09531 -0.54816
H  0.      -0.00481  1.24816
2
Step 182/20000
H  0.       0.09587 -0.55053
H  0.      -0.00487  1.25053
2
Step 183/20000
H  0.       0.09644 -0.5529 
H  0.      -0.00494  1.2529 
2
Step 184/20000
H  0.       0.097   -0.55527
H  0.      -0.005    1.25527
2
Step 185/20000
H  0.       0.09756 -0.55765
H  0.      -0.00506  1.25765
2
Step 186/20000
H  0.       0.09813 -0.56004
H  0.      -0.00513  1.26004
2
Step 187/20000
H  0.       0.09869 -0.56243
H  0.      -0.00519  1.26243
2
Step 188/20000
H  0.       0.09926 -0.56482
H  0.      -0.00526  1.26482
2
Step 189/20000
H  0.       0.09982 -0.56722
H  0.      -0.00532  1.26722
2
Step 191/20000
H  0.       0.10095 -0.57203
H  0.      -0.00545  1.27203
2
Step 192/20000
H  0.       0.10152 -0.57444
H  0.      -0.00552  1.27444
2
Step 193/20000
H  0.       0.10208 -0.57685
H  0.      -0.00558  1.27685
2
Step 194/20000
H  0.       0.10265 -0.57927
H  0.      -0.00565  1.27927
2
Step 195/20000
H  0.       0.10321 -0.58169
H  0.      -0.00571  1.28169
2
Step 196/20000
H  0.       0.10378 -0.58411
H  0.      -0.00578  1.28411
2
Step 197/20000
H  0.       0.10435 -0.58654
H  0.      -0.00585  1.28654
2
Step 198/20000
H  0.       0.10491 -0.58897
H  0.      -0.00591  1.28897
2
Step 199/20000
H  0.       0.10548 -0.5914 
H  0.      -0.00598  1.2914 
2
Step 201/20000
H  0.       0.10661 -0.59627
H  0.      -0.00611  1.29627
2
Step 202/20000
H  0.       0.10718 -0.59871
H  0.      -0.00618  1.29871
2
Step 203/20000
H  0.       0.10775 -0.60116
H  0.      -0.00625  1.30116
2
Step 204/20000
H  0.       0.10831 -0.6036 
H  0.      -0.00631  1.3036 
2
Step 205/20000
H  0.       0.10888 -0.60605
H  0.      -0.00638  1.30605
2
Step 206/20000
H  0.       0.10945 -0.6085 
H  0.      -0.00645  1.3085 
2
Step 207/20000
H  0.       0.11002 -0.61095
H  0.      -0.00652  1.31095
2
Step 208/20000
H  0.       0.11059 -0.61341
H  0.      -0.00659  1.31341
2
Step 209/20000
H  0.       0.11115 -0.61586
H  0.      -0.00665  1.31586
2
Step 211/20000
H  0.       0.11229 -0.62078
H  0.      -0.00679  1.32078
2
Step 212/20000
H  0.       0.11286 -0.62324
H  0.      -0.00686  1.32324
2
Step 213/20000
H  0.       0.11343 -0.6257 
H  0.      -0.00693  1.3257 
2
Step 214/20000
H  0.       0.114   -0.62816
H  0.      -0.007    1.32816
2
Step 215/20000
H  0.       0.11456 -0.63063
H  0.      -0.00706  1.33063
2
Step 216/20000
H  0.       0.11513 -0.63309
H  0.      -0.00713  1.33309
2
Step 217/20000
H  0.       0.1157  -0.63555
H  0.      -0.0072   1.33555
2
Step 218/20000
H  0.       0.11627 -0.63802
H  0.      -0.00727  1.33802
2
Step 219/20000
H  0.       0.11684 -0.64049
H  0.      -0.00734  1.34049
2
Step 221/20000
H  0.       0.11798 -0.64542
H  0.      -0.00748  1.34542
2
Step 222/20000
H  0.       0.11854 -0.64789
H  0.      -0.00754  1.34789
2
Step 223/20000
H  0.       0.11911 -0.65035
H  0.      -0.00761  1.35035
2
Step 224/20000
H  0.       0.11968 -0.65282
H  0.      -0.00768  1.35282
2
Step 225/20000
H  0.       0.12025 -0.65529
H  0.      -0.00775  1.35529
2
Step 226/20000
H  0.       0.12082 -0.65775
H  0.      -0.00782  1.35775
2
Step 227/20000
H  0.       0.12139 -0.66022
H  0.      -0.00789  1.36022
2
Step 228/20000
H  0.       0.12196 -0.66268
H  0.      -0.00796  1.36268
2
Step 229/20000
H  0.       0.12252 -0.66515
H  0.      -0.00802  1.36515
2
Step 231/20000
H  0.       0.12366 -0.67008
H  0.      -0.00816  1.37008
2
Step 232/20000
H  0.       0.12423 -0.67254
H  0.      -0.00823  1.37254
2
Step 233/20000
H  0.      0.1248 -0.675 
H  0.     -0.0083  1.375 
2
Step 234/20000
H  0.       0.12537 -0.67746
H  0.      -0.00837  1.37746
2
Step 235/20000
H  0.       0.12593 -0.67991
H  0.      -0.00843  1.37991
2
Step 236/20000
H  0.       0.1265  -0.68237
H  0.      -0.0085   1.38237
2
Step 237/20000
H  0.       0.12707 -0.68482
H  0.      -0.00857  1.38482
2
Step 238/20000
H  0.       0.12764 -0.68728
H  0.      -0.00864  1.38728
2
Step 239/20000
H  0.       0.12821 -0.68973
H  0.      -0.00871  1.38973
2
Step 241/20000
H  0.       0.12934 -0.69462
H  0.      -0.00884  1.39462
2
Step 242/20000
H  0.       0.12991 -0.69706
H  0.      -0.00891  1.39706
2
Step 243/20000
H  0.       0.13047 -0.6995 
H  0.      -0.00897  1.3995 
2
Step 244/20000
H  0.       0.13104 -0.70194
H  0.      -0.00904  1.40194
2
Step 245/20000
H  0.       0.13161 -0.70438
H  0.      -0.00911  1.40438
2
Step 246/20000
H  0.       0.13217 -0.70681
H  0.      -0.00917  1.40681
2
Step 247/20000
H  0.       0.13274 -0.70924
H  0.      -0.00924  1.40924
2
Step 248/20000
H  0.       0.13331 -0.71167
H  0.      -0.00931  1.41167
2
Step 249/20000
H  0.       0.13387 -0.71409
H  0.      -0.00937  1.41409
2
Step 251/20000
H  0.       0.135   -0.71893
H  0.      -0.0095   1.41893
2
Step 252/20000
H  0.       0.13557 -0.72134
H  0.      -0.00957  1.42134
2
Step 253/20000
H  0.       0.13613 -0.72375
H  0.      -0.00963  1.42375
2
Step 254/20000
H  0.       0.1367  -0.72616
H  0.      -0.0097   1.42616
2
Step 255/20000
H  0.       0.13726 -0.72856
H  0.      -0.00976  1.42856
2
Step 256/20000
H  0.       0.13783 -0.73096
H  0.      -0.00983  1.43096
2
Step 257/20000
H  0.       0.13839 -0.73335
H  0.      -0.00989  1.43335
2
Step 258/20000
H  0.       0.13895 -0.73574
H  0.      -0.00995  1.43574
2
Step 259/20000
H  0.       0.13952 -0.73813
H  0.      -0.01002  1.43813
2
Step 261/20000
H  0.       0.14064 -0.74288
H  0.      -0.01014  1.44288
2
Step 262/20000
H  0.       0.14121 -0.74526
H  0.      -0.01021  1.44526
2
Step 263/20000
H  0.       0.14177 -0.74762
H  0.      -0.01027  1.44762
2
Step 264/20000
H  0.       0.14233 -0.74998
H  0.      -0.01033  1.44998
2
Step 265/20000
H  0.       0.14289 -0.75234
H  0.      -0.01039  1.45234
2
Step 266/20000
H  0.       0.14345 -0.75469
H  0.      -0.01045  1.45469
2
Step 267/20000
H  0.       0.14401 -0.75704
H  0.      -0.01051  1.45704
2
Step 268/20000
H  0.       0.14457 -0.75938
H  0.      -0.01057  1.45938
2
Step 269/20000
H  0.       0.14513 -0.76171
H  0.      -0.01063  1.46171
2
Step 271/20000
H  0.       0.14625 -0.76636
H  0.      -0.01075  1.46636
2
Step 272/20000
H  0.       0.14681 -0.76868
H  0.      -0.01081  1.46868
2
Step 273/20000
H  0.       0.14737 -0.77099
H  0.      -0.01087  1.47099
2
Step 274/20000
H  0.       0.14792 -0.7733 
H  0.      -0.01092  1.4733 
2
Step 275/20000
H  0.       0.14848 -0.77559
H  0.      -0.01098  1.47559
2
Step 276/20000
H  0.       0.14904 -0.77789
H  0.      -0.01104  1.47789
2
Step 277/20000
H  0.       0.14959 -0.78017
H  0.      -0.01109  1.48017
2
Step 278/20000
H  0.       0.15015 -0.78245
H  0.      -0.01115  1.48245
2
Step 279/20000
H  0.       0.15071 -0.78472
H  0.      -0.01121  1.48472
2
Step 281/20000
H  0.       0.15181 -0.78925
H  0.      -0.01131  1.48925
2
Step 282/20000
H  0.       0.15237 -0.7915 
H  0.      -0.01137  1.4915 
2
Step 283/20000
H  0.       0.15292 -0.79374
H  0.      -0.01142  1.49374
2
Step 284/20000
H  0.       0.15347 -0.79598
H  0.      -0.01147  1.49598
2
Step 285/20000
H  0.       0.15403 -0.79821
H  0.      -0.01153  1.49821
2
Step 286/20000
H  0.       0.15458 -0.80043
H  0.      -0.01158  1.50043
2
Step 287/20000
H  0.       0.15513 -0.80265
H  0.      -0.01163  1.50265
2
Step 288/20000
H  0.       0.15568 -0.80485
H  0.      -0.01168  1.50485
2
Step 289/20000
H  0.       0.15623 -0.80705
H  0.      -0.01173  1.50705
2
Step 291/20000
H  0.       0.15733 -0.81142
H  0.      -0.01183  1.51142
2
Step 292/20000
H  0.       0.15788 -0.8136 
H  0.      -0.01188  1.5136 
2
Step 293/20000
H  0.       0.15842 -0.81576
H  0.      -0.01192  1.51576
2
Step 294/20000
H  0.       0.15897 -0.81792
H  0.      -0.01197  1.51792
2
Step 295/20000
H  0.       0.15952 -0.82007
H  0.      -0.01202  1.52007
2
Step 296/20000
H  0.       0.16006 -0.82221
H  0.      -0.01206  1.52221
2
Step 297/20000
H  0.       0.16061 -0.82434
H  0.      -0.01211  1.52434
2
Step 298/20000
H  0.       0.16115 -0.82647
H  0.      -0.01215  1.52647
2
Step 299/20000
H  0.       0.1617  -0.82858
H  0.      -0.0122   1.52858
2
Step 301/20000
H  0.       0.16278 -0.83278
H  0.      -0.01228  1.53278
2
Step 302/20000
H  0.       0.16332 -0.83487
H  0.      -0.01232  1.53487
2
Step 303/20000
H  0.       0.16387 -0.83694
H  0.      -0.01237  1.53694
2
Step 304/20000
H  0.       0.16441 -0.83901
H  0.      -0.01241  1.53901
2
Step 305/20000
H  0.       0.16495 -0.84107
H  0.      -0.01245  1.54107
2
Step 306/20000
H  0.       0.16548 -0.84312
H  0.      -0.01248  1.54312
2
Step 307/20000
H  0.       0.16602 -0.84515
H  0.      -0.01252  1.54515
2
Step 308/20000
H  0.       0.16656 -0.84718
H  0.      -0.01256  1.54718
2
Step 309/20000
H  0.      0.1671 -0.8492
H  0.     -0.0126  1.5492
2
Step 311/20000
H  0.       0.16817 -0.85321
H  0.      -0.01267  1.55321
2
Step 312/20000
H  0.      0.1687 -0.8552
H  0.     -0.0127  1.5552
2
Step 313/20000
H  0.       0.16924 -0.85717
H  0.      -0.01274  1.55717
2
Step 314/20000
H  0.       0.16977 -0.85914
H  0.      -0.01277  1.55914
2
Step 315/20000
H  0.      0.1703 -0.8611
H  0.     -0.0128  1.5611
2
Step 316/20000
H  0.       0.17083 -0.86304
H  0.      -0.01283  1.56304
2
Step 317/20000
H  0.       0.17136 -0.86498
H  0.      -0.01286  1.56498
2
Step 318/20000
H  0.       0.17189 -0.8669 
H  0.      -0.01289  1.5669 
2
Step 319/20000
H  0.       0.17242 -0.86881
H  0.      -0.01292  1.56881
2
Step 321/20000
H  0.       0.17348 -0.87261
H  0.      -0.01298  1.57261
2
Step 322/20000
H  0.       0.174   -0.87449
H  0.      -0.013    1.57449
2
Step 323/20000
H  0.       0.17453 -0.87635
H  0.      -0.01303  1.57635
2
Step 324/20000
H  0.       0.17505 -0.87821
H  0.      -0.01305  1.57821
2
Step 325/20000
H  0.       0.17558 -0.88006
H  0.      -0.01308  1.58006
2
Step 326/20000
H  0.       0.1761  -0.88189
H  0.      -0.0131   1.58189
2
Step 327/20000
H  0.       0.17662 -0.88371
H  0.      -0.01312  1.58371
2
Step 328/20000
H  0.       0.17714 -0.88552
H  0.      -0.01314  1.58552
2
Step 329/20000
H  0.       0.17766 -0.88732
H  0.      -0.01316  1.58732
2
Step 331/20000
H  0.       0.1787  -0.89088
H  0.      -0.0132   1.59088
2
Step 332/20000
H  0.       0.17922 -0.89264
H  0.      -0.01322  1.59264
2
Step 333/20000
H  0.       0.17973 -0.89439
H  0.      -0.01323  1.59439
2
Step 334/20000
H  0.       0.18025 -0.89613
H  0.      -0.01325  1.59613
2
Step 335/20000
H  0.       0.18076 -0.89785
H  0.      -0.01326  1.59785
2
Step 336/20000
H  0.       0.18127 -0.89956
H  0.      -0.01327  1.59956
2
Step 337/20000
H  0.       0.18179 -0.90126
H  0.      -0.01329  1.60126
2
Step 338/20000
H  0.       0.1823  -0.90295
H  0.      -0.0133   1.60295
2
Step 339/20000
H  0.       0.18281 -0.90462
H  0.      -0.01331  1.60462
2
Step 341/20000
H  0.       0.18383 -0.90793
H  0.      -0.01333  1.60793
2
Step 342/20000
H  0.       0.18433 -0.90957
H  0.      -0.01333  1.60957
2
Step 343/20000
H  0.       0.18484 -0.91119
H  0.      -0.01334  1.61119
2
Step 344/20000
H  0.       0.18534 -0.9128 
H  0.      -0.01334  1.6128 
2
Step 345/20000
H  0.       0.18585 -0.91439
H  0.      -0.01335  1.61439
2
Step 346/20000
H  0.       0.18635 -0.91597
H  0.      -0.01335  1.61597
2
Step 347/20000
H  0.       0.18685 -0.91754
H  0.      -0.01335  1.61754
2
Step 348/20000
H  0.       0.18736 -0.9191 
H  0.      -0.01336  1.6191 
2
Step 349/20000
H  0.       0.18786 -0.92064
H  0.      -0.01336  1.62064
2
Step 351/20000
H  0.       0.18885 -0.92368
H  0.      -0.01335  1.62368
2
Step 352/20000
H  0.       0.18935 -0.92518
H  0.      -0.01335  1.62518
2
Step 353/20000
H  0.       0.18984 -0.92667
H  0.      -0.01334  1.62667
2
Step 354/20000
H  0.       0.19034 -0.92814
H  0.      -0.01334  1.62814
2
Step 355/20000
H  0.       0.19083 -0.9296 
H  0.      -0.01333  1.6296 
2
Step 356/20000
H  0.       0.19132 -0.93104
H  0.      -0.01332  1.63104
2
Step 357/20000
H  0.       0.19181 -0.93247
H  0.      -0.01331  1.63247
2
Step 358/20000
H  0.       0.1923  -0.93389
H  0.      -0.0133   1.63389
2
Step 359/20000
H  0.       0.19279 -0.93529
H  0.      -0.01329  1.63529
2
Step 361/20000
H  0.       0.19377 -0.93805
H  0.      -0.01327  1.63805
2
Step 362/20000
H  0.       0.19425 -0.9394 
H  0.      -0.01325  1.6394 
2
Step 363/20000
H  0.       0.19474 -0.94075
H  0.      -0.01324  1.64075
2
Step 364/20000
H  0.       0.19522 -0.94208
H  0.      -0.01322  1.64208
2
Step 365/20000
H  0.       0.1957  -0.94339
H  0.      -0.0132   1.64339
2
Step 366/20000
H  0.       0.19618 -0.94469
H  0.      -0.01318  1.64469
2
Step 367/20000
H  0.       0.19666 -0.94597
H  0.      -0.01316  1.64597
2
Step 368/20000
H  0.       0.19714 -0.94724
H  0.      -0.01314  1.64724
2
Step 369/20000
H  0.       0.19762 -0.94849
H  0.      -0.01312  1.64849
2
Step 371/20000
H  0.       0.19857 -0.95096
H  0.      -0.01307  1.65096
2
Step 372/20000
H  0.       0.19904 -0.95216
H  0.      -0.01304  1.65216
2
Step 373/20000
H  0.       0.19951 -0.95336
H  0.      -0.01301  1.65336
2
Step 374/20000
H  0.       0.19998 -0.95454
H  0.      -0.01298  1.65454
2
Step 375/20000
H  0.       0.20045 -0.9557 
H  0.      -0.01295  1.6557 
2
Step 376/20000
H  0.       0.20092 -0.95684
H  0.      -0.01292  1.65684
2
Step 377/20000
H  0.       0.20139 -0.95798
H  0.      -0.01289  1.65798
2
Step 378/20000
H  0.       0.20185 -0.95909
H  0.      -0.01285  1.65909
2
Step 379/20000
H  0.       0.20232 -0.96019
H  0.      -0.01282  1.66019
2
Step 381/20000
H  0.       0.20324 -0.96235
H  0.      -0.01274  1.66235
2
Step 382/20000
H  0.      0.2037 -0.9634
H  0.     -0.0127  1.6634
2
Step 383/20000
H  0.       0.20416 -0.96444
H  0.      -0.01266  1.66444
2
Step 384/20000
H  0.       0.20462 -0.96546
H  0.      -0.01262  1.66546
2
Step 385/20000
H  0.       0.20508 -0.96646
H  0.      -0.01258  1.66646
2
Step 386/20000
H  0.       0.20553 -0.96745
H  0.      -0.01253  1.66745
2
Step 387/20000
H  0.       0.20598 -0.96842
H  0.      -0.01248  1.66842
2
Step 388/20000
H  0.       0.20644 -0.96938
H  0.      -0.01244  1.66938
2
Step 389/20000
H  0.       0.20689 -0.97032
H  0.      -0.01239  1.67032
2
Step 391/20000
H  0.       0.20779 -0.97216
H  0.      -0.01229  1.67216
2
Step 392/20000
H  0.       0.20823 -0.97305
H  0.      -0.01223  1.67305
2
Step 393/20000
H  0.       0.20868 -0.97392
H  0.      -0.01218  1.67392
2
Step 394/20000
H  0.       0.20912 -0.97478
H  0.      -0.01212  1.67478
2
Step 395/20000
H  0.       0.20957 -0.97563
H  0.      -0.01207  1.67563
2
Step 396/20000
H  0.       0.21001 -0.97645
H  0.      -0.01201  1.67645
2
Step 397/20000
H  0.       0.21045 -0.97726
H  0.      -0.01195  1.67726
2
Step 398/20000
H  0.       0.21089 -0.97806
H  0.      -0.01189  1.67806
2
Step 399/20000
H  0.       0.21133 -0.97884
H  0.      -0.01183  1.67884
2
Step 401/20000
H  0.       0.2122  -0.98034
H  0.      -0.0117   1.68034
2
Step 402/20000
H  0.       0.21263 -0.98107
H  0.      -0.01163  1.68107
2
Step 403/20000
H  0.       0.21306 -0.98178
H  0.      -0.01156  1.68178
2
Step 404/20000
H  0.       0.21349 -0.98247
H  0.      -0.01149  1.68247
2
Step 405/20000
H  0.       0.21392 -0.98315
H  0.      -0.01142  1.68315
2
Step 406/20000
H  0.       0.21435 -0.98381
H  0.      -0.01135  1.68381
2
Step 407/20000
H  0.       0.21478 -0.98445
H  0.      -0.01128  1.68445
2
Step 408/20000
H  0.       0.2152  -0.98508
H  0.      -0.0112   1.68508
2
Step 409/20000
H  0.       0.21562 -0.98569
H  0.      -0.01112  1.68569
2
Step 411/20000
H  0.       0.21647 -0.98686
H  0.      -0.01097  1.68686
2
Step 412/20000
H  0.       0.21689 -0.98741
H  0.      -0.01089  1.68741
2
Step 413/20000
H  0.       0.2173  -0.98795
H  0.      -0.0108   1.68795
2
Step 414/20000
H  0.       0.21772 -0.98848
H  0.      -0.01072  1.68848
2
Step 415/20000
H  0.       0.21813 -0.98899
H  0.      -0.01063  1.68899
2
Step 416/20000
H  0.       0.21855 -0.98948
H  0.      -0.01055  1.68948
2
Step 417/20000
H  0.       0.21896 -0.98995
H  0.      -0.01046  1.68995
2
Step 418/20000
H  0.       0.21937 -0.9904 
H  0.      -0.01037  1.6904 
2
Step 419/20000
H  0.       0.21978 -0.99084
H  0.      -0.01028  1.69084
2
Step 421/20000
H  0.       0.22059 -0.99167
H  0.      -0.01009  1.69167
2
Step 422/20000
H  0.       0.221   -0.99206
H  0.      -0.01     1.69206
2
Step 423/20000
H  0.       0.2214  -0.99242
H  0.      -0.0099   1.69242
2
Step 424/20000
H  0.       0.2218  -0.99278
H  0.      -0.0098   1.69278
2
Step 425/20000
H  0.       0.2222  -0.99311
H  0.      -0.0097   1.69311
2
Step 426/20000
H  0.       0.2226  -0.99343
H  0.      -0.0096   1.69343
2
Step 427/20000
H  0.       0.223   -0.99373
H  0.      -0.0095   1.69373
2
Step 428/20000
H  0.       0.22339 -0.99401
H  0.      -0.00939  1.69401
2
Step 429/20000
H  0.       0.22378 -0.99428
H  0.      -0.00928  1.69428
2
Step 431/20000
H  0.       0.22457 -0.99476